
     Program PWSCF v.6.1 starts on 20May2021 at  2:13:16 

     This program is part of the open-source Quantum ESPRESSO suite
     for quantum simulation of materials; please cite
         "P. Giannozzi et al., J. Phys.:Condens. Matter 21 395502 (2009);
          URL http://www.quantum-espresso.org", 
     in publications or presentations arising from this work. More details at
     http://www.quantum-espresso.org/quote

     Parallel version (MPI), running on     2 processors
     R & G space division:  proc/nbgrp/npool/nimage =       2
     Reading input from pw.in

     Current dimensions of program PWSCF are:
     Max number of different atomic species (ntypx) = 10
     Max number of k-points (npk) =  40000
     Max angular momentum in pseudopotentials (lmaxx) =  3

     gamma-point specific algorithms are used

     Subspace diagonalization in iterative solution of the eigenvalue problem:
     a serial algorithm will be used


     Parallelization info
     --------------------
     sticks:   dense  smooth     PW     G-vecs:    dense   smooth      PW
     Min        1590    1590    395                67521    67521    8437
     Max        1591    1591    398                67522    67522    8442
     Sum        3181    3181    793               135043   135043   16879



     bravais-lattice index     =            1
     lattice parameter (alat)  =      20.0000  a.u.
     unit-cell volume          =    8000.0000 (a.u.)^3
     number of atoms/cell      =            5
     number of atomic types    =            2
     number of electrons       =         8.00 (up:   4.00, down:   4.00)
     number of Kohn-Sham states=           10
     kinetic-energy cutoff     =      25.0000  Ry
     charge density cutoff     =     100.0000  Ry
     convergence threshold     =      1.0E-06
     mixing beta               =       0.7000
     number of iterations used =            8  plain     mixing
     Exchange-correlation      = PBE ( 1  4  3  4 0 0)

     celldm(1)=  20.000000  celldm(2)=   0.000000  celldm(3)=   0.000000
     celldm(4)=   0.000000  celldm(5)=   0.000000  celldm(6)=   0.000000

     crystal axes: (cart. coord. in units of alat)
               a(1) = (   1.000000   0.000000   0.000000 )  
               a(2) = (   0.000000   1.000000   0.000000 )  
               a(3) = (   0.000000   0.000000   1.000000 )  

     reciprocal axes: (cart. coord. in units 2 pi/alat)
               b(1) = (  1.000000  0.000000  0.000000 )  
               b(2) = (  0.000000  1.000000  0.000000 )  
               b(3) = (  0.000000  0.000000  1.000000 )  


     PseudoPot. # 1 for C  read from file:
     ./C_ONCV_PBE-1.0.upf
     MD5 check sum: 40f8c33130f0afa4272e9dcc1c4fb0df
     Pseudo is Norm-conserving, Zval =  4.0
     Generated using ONCVPSP code by D. R. Hamann
     Using radial grid of  602 points,  4 beta functions with: 
                l(1) =   0
                l(2) =   0
                l(3) =   1
                l(4) =   1

     PseudoPot. # 2 for H  read from file:
     ./H_ONCV_PBE-1.0.upf
     MD5 check sum: 10f92816c437af099bca1a183851adc8
     Pseudo is Norm-conserving, Zval =  1.0
     Generated using ONCVPSP code by D. R. Hamann
     Using radial grid of  602 points,  2 beta functions with: 
                l(1) =   0
                l(2) =   0

     atomic species   valence    mass     pseudopotential
        C              4.00    12.01070     C ( 1.00)
        H              1.00     1.00794     H ( 1.00)

     Starting magnetic structure 
     atomic species   magnetization
        C            0.000
        H            0.000

     24 Sym. Ops. (no inversion) found



   Cartesian axes

     site n.     atom                  positions (alat units)
         1           C   tau(   1) = (   0.0000000   0.0000000   0.0000000  )
         2           H   tau(   2) = (   0.0592996  -0.0592902   0.0592996  )
         3           H   tau(   3) = (  -0.0592996   0.0592996   0.0592996  )
         4           H   tau(   4) = (  -0.0592996  -0.0592996  -0.0592996  )
         5           H   tau(   5) = (   0.0592996   0.0592996  -0.0592996  )

     number of k points=     1
                       cart. coord. in units 2pi/alat
        k(    1) = (   0.0000000   0.0000000   0.0000000), wk =   1.0000000

     Dense  grid:    67522 G-vectors     FFT dimensions: (  64,  64,  64)

     Estimated max dynamical RAM per process >      43.91MB

     Estimated total allocated dynamical RAM >      87.81MB
     Generating pointlists ...
     new r_m :   0.0424 (alat units)  0.8473 (a.u.) for type    1
     new r_m :   0.0424 (alat units)  0.8473 (a.u.) for type    2

     Initial potential from superposition of free atoms
     Check: negative starting charge=(component1):   -0.010193
     Check: negative starting charge=(component2):   -0.010193

     starting charge    7.98450, renormalised to    8.00000

     negative rho (up, down):  1.021E-02 1.021E-02
     Starting wfc are random

     total cpu time spent up to now is        0.4 secs

     per-process dynamical memory:    37.4 Mb

     Self-consistent Calculation

     iteration #  1     ecut=    25.00 Ry     beta=0.70
     Davidson diagonalization with overlap
     ethr =  1.00E-02,  avg # of iterations =  7.0

     negative rho (up, down):  2.868E-03 2.906E-03

     total cpu time spent up to now is        1.1 secs

     total energy              =     -15.79756192 Ry
     Harris-Foulkes estimate   =     -16.11420292 Ry
     estimated scf accuracy    <       0.49951769 Ry

     total magnetization       =    -0.00 Bohr mag/cell
     absolute magnetization    =     0.02 Bohr mag/cell

     iteration #  2     ecut=    25.00 Ry     beta=0.70
     Davidson diagonalization with overlap
     ethr =  6.24E-03,  avg # of iterations =  4.0

     negative rho (up, down):  1.317E-03 1.338E-03

     total cpu time spent up to now is        1.5 secs

     total energy              =     -15.89690164 Ry
     Harris-Foulkes estimate   =     -15.96411353 Ry
     estimated scf accuracy    <       0.12033106 Ry

     total magnetization       =    -0.00 Bohr mag/cell
     absolute magnetization    =     0.01 Bohr mag/cell

     iteration #  3     ecut=    25.00 Ry     beta=0.70
     Davidson diagonalization with overlap
     ethr =  1.50E-03,  avg # of iterations =  2.5

     negative rho (up, down):  3.206E-05 3.284E-05

     total cpu time spent up to now is        1.9 secs

     total energy              =     -15.92266839 Ry
     Harris-Foulkes estimate   =     -15.92487832 Ry
     estimated scf accuracy    <       0.00412675 Ry

     total magnetization       =     0.00 Bohr mag/cell
     absolute magnetization    =     0.00 Bohr mag/cell

     iteration #  4     ecut=    25.00 Ry     beta=0.70
     Davidson diagonalization with overlap
     ethr =  5.16E-05,  avg # of iterations = 14.5

     negative rho (up, down):  3.185E-05 3.229E-05

     total cpu time spent up to now is        2.4 secs

     total energy              =     -15.92365672 Ry
     Harris-Foulkes estimate   =     -15.92371612 Ry
     estimated scf accuracy    <       0.00012108 Ry

     total magnetization       =     0.00 Bohr mag/cell
     absolute magnetization    =     0.00 Bohr mag/cell

     iteration #  5     ecut=    25.00 Ry     beta=0.70
     Davidson diagonalization with overlap
     ethr =  1.51E-06,  avg # of iterations =  5.0

     total cpu time spent up to now is        2.9 secs

     total energy              =     -15.92367584 Ry
     Harris-Foulkes estimate   =     -15.92367808 Ry
     estimated scf accuracy    <       0.00000902 Ry

     total magnetization       =    -0.00 Bohr mag/cell
     absolute magnetization    =     0.00 Bohr mag/cell

     iteration #  6     ecut=    25.00 Ry     beta=0.70
     Davidson diagonalization with overlap
     ethr =  1.13E-07,  avg # of iterations =  5.0

     Magnetic moment per site:
     atom:    1    charge:    0.7419    magn:    0.0000    constr:    0.0000
     atom:    2    charge:    0.4935    magn:    0.0000    constr:    0.0000
     atom:    3    charge:    0.4934    magn:   -0.0000    constr:    0.0000
     atom:    4    charge:    0.4934    magn:   -0.0000    constr:    0.0000
     atom:    5    charge:    0.4934    magn:    0.0000    constr:    0.0000

     total cpu time spent up to now is        3.3 secs

     End of self-consistent calculation

 ------ SPIN UP ------------


          k = 0.0000 0.0000 0.0000 (  8440 PWs)   bands (ev):

   -17.2195  -9.2810  -9.2807  -9.2804  -0.5561   0.7513   0.8875   0.8875
     0.8876   1.0381

 ------ SPIN DOWN ----------


          k = 0.0000 0.0000 0.0000 (  8440 PWs)   bands (ev):

   -17.2194  -9.2810  -9.2805  -9.2804  -0.5562   0.7512   0.8874   0.8875
     0.8876   1.0380

     highest occupied, lowest unoccupied level (ev):    -9.2804   -0.5562

!    total energy              =     -15.92367645 Ry
     Harris-Foulkes estimate   =     -15.92367658 Ry
     estimated scf accuracy    <       0.00000030 Ry

     The total energy is the sum of the following terms:

     one-electron contribution =     -41.05656560 Ry
     hartree contribution      =      21.30606957 Ry
     xc contribution           =      -6.31917904 Ry
     ewald contribution        =      10.14599861 Ry

     total magnetization       =     0.00 Bohr mag/cell
     absolute magnetization    =     0.00 Bohr mag/cell

     charge density inside the Wigner-Seitz cell:    8.00000000

     reference position (x0):         0.00000000    0.00002362    0.00000000 bohr

     Dipole moments (with respect to x0):
     Elect  -0.0000   0.0000   0.0002 au (Ha),  -0.0000   0.0001   0.0004 Debye
     Ionic   0.0000   0.0000   0.0000 au (Ha),   0.0000   0.0000   0.0000 Debye
     Total  -0.0000   0.0000   0.0002 au (Ha),  -0.0000   0.0001   0.0004 Debye

     Electrons quadrupole moment        -36.14006893 a.u. (Ha)
          Ions quadrupole moment         16.87847952 a.u. (Ha)
         Total quadrupole moment        -19.26158941 a.u. (Ha)

     *********    MAKOV-PAYNE CORRECTION    *********

     Makov-Payne correction with Madelung constant =   2.8373

     Makov-Payne correction     0.00000000 Ry =  0.000 eV (1st order, 1/a0)
                                0.00000000 Ry =  0.000 eV (2nd order, 1/a0^3)
                                0.00000000 Ry =  0.000 eV (total)

!    Total+Makov-Payne energy  =     -15.92367645 Ry
     Corrected vacuum level    =       0.14017198 eV

     convergence has been achieved in   6 iterations

     Writing output data file test.save

     init_run     :      0.35s CPU      0.37s WALL (       1 calls)
     electrons    :      2.90s CPU      2.96s WALL (       1 calls)

     Called by init_run:
     wfcinit      :      0.06s CPU      0.06s WALL (       1 calls)
     potinit      :      0.16s CPU      0.18s WALL (       1 calls)

     Called by electrons:
     c_bands      :      1.78s CPU      1.79s WALL (       6 calls)
     sum_band     :      0.25s CPU      0.25s WALL (       6 calls)
     v_of_rho     :      0.88s CPU      0.91s WALL (       7 calls)
     mix_rho      :      0.09s CPU      0.10s WALL (       6 calls)

     Called by c_bands:
     init_us_2    :      0.02s CPU      0.02s WALL (      26 calls)
     regterg      :      1.75s CPU      1.77s WALL (      12 calls)

     Called by sum_band:

     Called by *egterg:
     h_psi        :      1.40s CPU      1.41s WALL (      90 calls)
     g_psi        :      0.01s CPU      0.01s WALL (      76 calls)
     rdiaghg      :      0.01s CPU      0.01s WALL (      88 calls)

     Called by h_psi:
     h_psi:pot    :      1.39s CPU      1.41s WALL (      90 calls)
     h_psi:calbec :      0.07s CPU      0.07s WALL (      90 calls)
     vloc_psi     :      1.26s CPU      1.28s WALL (      90 calls)
     add_vuspsi   :      0.06s CPU      0.06s WALL (      90 calls)

     General routines
     calbec       :      0.07s CPU      0.07s WALL (      90 calls)
     fft          :      0.54s CPU      0.56s WALL (     144 calls)
     fftw         :      1.28s CPU      1.29s WALL (     644 calls)

     Parallel routines
     fft_scatter  :      0.28s CPU      0.29s WALL (     788 calls)

     PWSCF        :     3.30s CPU         3.39s WALL


   This run was terminated on:   2:13:20  20May2021            

=------------------------------------------------------------------------------=
   JOB DONE.
=------------------------------------------------------------------------------=
