
     Program PWSCF v.6.1 starts on 20May2021 at  2:12:38 

     This program is part of the open-source Quantum ESPRESSO suite
     for quantum simulation of materials; please cite
         "P. Giannozzi et al., J. Phys.:Condens. Matter 21 395502 (2009);
          URL http://www.quantum-espresso.org", 
     in publications or presentations arising from this work. More details at
     http://www.quantum-espresso.org/quote

     Parallel version (MPI), running on     2 processors
     R & G space division:  proc/nbgrp/npool/nimage =       2
     Reading input from pw.in

     Current dimensions of program PWSCF are:
     Max number of different atomic species (ntypx) = 10
     Max number of k-points (npk) =  40000
     Max angular momentum in pseudopotentials (lmaxx) =  3

     gamma-point specific algorithms are used

     Subspace diagonalization in iterative solution of the eigenvalue problem:
     a serial algorithm will be used


     Parallelization info
     --------------------
     sticks:   dense  smooth     PW     G-vecs:    dense   smooth      PW
     Min        1590    1590    395                67521    67521    8437
     Max        1591    1591    398                67522    67522    8442
     Sum        3181    3181    793               135043   135043   16879



     bravais-lattice index     =            1
     lattice parameter (alat)  =      20.0000  a.u.
     unit-cell volume          =    8000.0000 (a.u.)^3
     number of atoms/cell      =            5
     number of atomic types    =            2
     number of electrons       =         8.00
     number of Kohn-Sham states=           10
     kinetic-energy cutoff     =      25.0000  Ry
     charge density cutoff     =     100.0000  Ry
     convergence threshold     =      1.0E-06
     mixing beta               =       0.7000
     number of iterations used =            8  plain     mixing
     Exchange-correlation      = PBE ( 1  4  3  4 0 0)

     celldm(1)=  20.000000  celldm(2)=   0.000000  celldm(3)=   0.000000
     celldm(4)=   0.000000  celldm(5)=   0.000000  celldm(6)=   0.000000

     crystal axes: (cart. coord. in units of alat)
               a(1) = (   1.000000   0.000000   0.000000 )  
               a(2) = (   0.000000   1.000000   0.000000 )  
               a(3) = (   0.000000   0.000000   1.000000 )  

     reciprocal axes: (cart. coord. in units 2 pi/alat)
               b(1) = (  1.000000  0.000000  0.000000 )  
               b(2) = (  0.000000  1.000000  0.000000 )  
               b(3) = (  0.000000  0.000000  1.000000 )  


     PseudoPot. # 1 for C  read from file:
     ./C_ONCV_PBE-1.0.upf
     MD5 check sum: 40f8c33130f0afa4272e9dcc1c4fb0df
     Pseudo is Norm-conserving, Zval =  4.0
     Generated using ONCVPSP code by D. R. Hamann
     Using radial grid of  602 points,  4 beta functions with: 
                l(1) =   0
                l(2) =   0
                l(3) =   1
                l(4) =   1

     PseudoPot. # 2 for H  read from file:
     ./H_ONCV_PBE-1.0.upf
     MD5 check sum: 10f92816c437af099bca1a183851adc8
     Pseudo is Norm-conserving, Zval =  1.0
     Generated using ONCVPSP code by D. R. Hamann
     Using radial grid of  602 points,  2 beta functions with: 
                l(1) =   0
                l(2) =   0

     atomic species   valence    mass     pseudopotential
        C              4.00    12.01070     C ( 1.00)
        H              1.00     1.00794     H ( 1.00)

     24 Sym. Ops. (no inversion) found



   Cartesian axes

     site n.     atom                  positions (alat units)
         1           C   tau(   1) = (   0.0000000   0.0000000   0.0000000  )
         2           H   tau(   2) = (   0.0592996  -0.0592902   0.0592996  )
         3           H   tau(   3) = (  -0.0592996   0.0592996   0.0592996  )
         4           H   tau(   4) = (  -0.0592996  -0.0592996  -0.0592996  )
         5           H   tau(   5) = (   0.0592996   0.0592996  -0.0592996  )

     number of k points=     1
                       cart. coord. in units 2pi/alat
        k(    1) = (   0.0000000   0.0000000   0.0000000), wk =   2.0000000

     Dense  grid:    67522 G-vectors     FFT dimensions: (  64,  64,  64)

     Estimated max dynamical RAM per process >      27.31MB

     Estimated total allocated dynamical RAM >      54.63MB

     Initial potential from superposition of free atoms
     Check: negative starting charge=   -0.020386

     starting charge    7.98450, renormalised to    8.00000

     negative rho (up, down):  2.043E-02 0.000E+00
     Starting wfc are random

     total cpu time spent up to now is        0.3 secs

     per-process dynamical memory:    25.6 Mb

     Self-consistent Calculation

     iteration #  1     ecut=    25.00 Ry     beta=0.70
     Davidson diagonalization with overlap
     ethr =  1.00E-02,  avg # of iterations =  7.0

     negative rho (up, down):  5.733E-03 0.000E+00

     total cpu time spent up to now is        0.6 secs

     total energy              =     -15.79365852 Ry
     Harris-Foulkes estimate   =     -16.11394454 Ry
     estimated scf accuracy    <       0.50452195 Ry

     iteration #  2     ecut=    25.00 Ry     beta=0.70
     Davidson diagonalization with overlap
     ethr =  6.31E-03,  avg # of iterations =  3.0

     negative rho (up, down):  2.650E-03 0.000E+00

     total cpu time spent up to now is        0.8 secs

     total energy              =     -15.89606636 Ry
     Harris-Foulkes estimate   =     -15.96571938 Ry
     estimated scf accuracy    <       0.12495437 Ry

     iteration #  3     ecut=    25.00 Ry     beta=0.70
     Davidson diagonalization with overlap
     ethr =  1.56E-03,  avg # of iterations =  2.0

     negative rho (up, down):  6.209E-05 0.000E+00

     total cpu time spent up to now is        1.0 secs

     total energy              =     -15.92266549 Ry
     Harris-Foulkes estimate   =     -15.92483622 Ry
     estimated scf accuracy    <       0.00405594 Ry

     iteration #  4     ecut=    25.00 Ry     beta=0.70
     Davidson diagonalization with overlap
     ethr =  5.07E-05,  avg # of iterations = 15.0

     negative rho (up, down):  6.541E-05 0.000E+00

     total cpu time spent up to now is        1.3 secs

     total energy              =     -15.92364790 Ry
     Harris-Foulkes estimate   =     -15.92370757 Ry
     estimated scf accuracy    <       0.00012384 Ry

     iteration #  5     ecut=    25.00 Ry     beta=0.70
     Davidson diagonalization with overlap
     ethr =  1.55E-06,  avg # of iterations =  5.0

     total cpu time spent up to now is        1.5 secs

     total energy              =     -15.92366439 Ry
     Harris-Foulkes estimate   =     -15.92366574 Ry
     estimated scf accuracy    <       0.00000521 Ry

     iteration #  6     ecut=    25.00 Ry     beta=0.70
     Davidson diagonalization with overlap
     ethr =  6.51E-08,  avg # of iterations = 13.0

     total cpu time spent up to now is        1.7 secs

     End of self-consistent calculation

          k = 0.0000 0.0000 0.0000 (  8440 PWs)   bands (ev):

   -17.2201  -9.2816  -9.2813  -9.2809  -0.5036   0.8021   0.9513   0.9513
     0.9514   1.1187

     highest occupied, lowest unoccupied level (ev):    -9.2809   -0.5036

!    total energy              =     -15.92366453 Ry
     Harris-Foulkes estimate   =     -15.92366474 Ry
     estimated scf accuracy    <       0.00000042 Ry

     The total energy is the sum of the following terms:

     one-electron contribution =     -41.05691143 Ry
     hartree contribution      =      21.30650158 Ry
     xc contribution           =      -6.31925328 Ry
     ewald contribution        =      10.14599861 Ry

     charge density inside the Wigner-Seitz cell:    8.00000000

     reference position (x0):         0.00000000    0.00002362    0.00000000 bohr

     Dipole moments (with respect to x0):
     Elect  -0.0001  -0.0000   0.0001 au (Ha),  -0.0004  -0.0001   0.0002 Debye
     Ionic   0.0000   0.0000   0.0000 au (Ha),   0.0000   0.0000   0.0000 Debye
     Total  -0.0001  -0.0000   0.0001 au (Ha),  -0.0004  -0.0001   0.0002 Debye

     Electrons quadrupole moment        -36.13762743 a.u. (Ha)
          Ions quadrupole moment         16.87847952 a.u. (Ha)
         Total quadrupole moment        -19.25914791 a.u. (Ha)

     *********    MAKOV-PAYNE CORRECTION    *********

     Makov-Payne correction with Madelung constant =   2.8373

     Makov-Payne correction     0.00000000 Ry =  0.000 eV (1st order, 1/a0)
                                0.00000000 Ry =  0.000 eV (2nd order, 1/a0^3)
                                0.00000000 Ry =  0.000 eV (total)

!    Total+Makov-Payne energy  =     -15.92366453 Ry
     Corrected vacuum level    =       0.14015425 eV

     convergence has been achieved in   6 iterations

     Writing output data file test.save

     init_run     :      0.22s CPU      0.24s WALL (       1 calls)
     electrons    :      1.43s CPU      1.46s WALL (       1 calls)

     Called by init_run:
     wfcinit      :      0.04s CPU      0.04s WALL (       1 calls)
     potinit      :      0.12s CPU      0.14s WALL (       1 calls)

     Called by electrons:
     c_bands      :      0.93s CPU      0.95s WALL (       6 calls)
     sum_band     :      0.12s CPU      0.12s WALL (       6 calls)
     v_of_rho     :      0.41s CPU      0.42s WALL (       7 calls)
     mix_rho      :      0.04s CPU      0.04s WALL (       6 calls)

     Called by c_bands:
     init_us_2    :      0.01s CPU      0.01s WALL (      13 calls)
     regterg      :      0.92s CPU      0.94s WALL (       6 calls)

     Called by sum_band:

     Called by *egterg:
     h_psi        :      0.75s CPU      0.76s WALL (      52 calls)
     g_psi        :      0.01s CPU      0.01s WALL (      45 calls)
     rdiaghg      :      0.01s CPU      0.01s WALL (      51 calls)

     Called by h_psi:
     h_psi:pot    :      0.74s CPU      0.75s WALL (      52 calls)
     h_psi:calbec :      0.04s CPU      0.04s WALL (      52 calls)
     vloc_psi     :      0.68s CPU      0.68s WALL (      52 calls)
     add_vuspsi   :      0.03s CPU      0.03s WALL (      52 calls)

     General routines
     calbec       :      0.04s CPU      0.04s WALL (      52 calls)
     fft          :      0.30s CPU      0.31s WALL (      76 calls)
     fftw         :      0.68s CPU      0.69s WALL (     338 calls)

     Parallel routines
     fft_scatter  :      0.16s CPU      0.17s WALL (     414 calls)

     PWSCF        :     1.70s CPU         1.76s WALL


   This run was terminated on:   2:12:39  20May2021            

=------------------------------------------------------------------------------=
   JOB DONE.
=------------------------------------------------------------------------------=
